 Gaussian 09, Revision E.01,
 Gaussian 09:  ES64L-G09RevE.01 30-Nov-2015

 -------------------------------------------
 # freq rb3lyp/6-31+g* geom=check guess=read
 -------------------------------------------

 -----------------------------
 conformation 0142 from proala
 -----------------------------
 Structure from the checkpoint file:  "proala0142.chk"
 Charge =  0 Multiplicity = 1

                         Standard orientation:
 ---------------------------------------------------------------------
 Center     Atomic      Atomic             Coordinates (Angstroms)
 Number     Number       Type             X           Y           Z
 ---------------------------------------------------------------------
      1          6           0       -3.299063   -0.760323    0.314389
      2          7           0       -2.633211    0.492857   -0.025386
      3          6           0       -1.231352    0.292070    0.308618
      4          6           0       -0.382059    1.470259   -0.179069
      5          8           0       -0.894582    2.438024   -0.730376
      6          6           0       -0.955319   -1.095045   -0.333742
      7          6           0       -2.334177   -1.816946   -0.271330
      8          1           0       -3.036280    1.328742    0.388097
      9          7           0        0.979259    1.494149    0.064095
     10          6           0        1.931767    0.524619    0.600905
     11          6           0        2.277582   -0.629024   -0.355711
     12          8           0        2.619016   -1.737941   -0.003961
     13          6           0        1.644429    0.018623    2.020426
     14          8           0        2.238919   -0.248641   -1.652570
     15          1           0        2.525617   -1.013890   -2.186618
     16          1           0        1.391151    2.313634   -0.367690
     17          1           0       -4.299578   -0.797206   -0.129235
     18          1           0       -3.405707   -0.911324    1.406670
     19          1           0       -1.075658    0.210586    1.403287
     20          1           0       -0.176173   -1.653295    0.190954
     21          1           0       -0.637379   -0.962070   -1.372262
     22          1           0       -2.299195   -2.719695    0.347150
     23          1           0       -2.652671   -2.115608   -1.274590
     24          1           0        2.872887    1.089175    0.658769
     25          1           0        0.791375   -0.661546    2.060423
     26          1           0        2.513802   -0.526351    2.397460
     27          1           0        1.447803    0.872884    2.674958
 ---------------------------------------------------------------------

 SCF Done:  E(RB3LYP) =  -648.485785943     A.U. after    1 cycles

 The electronic state is 1-A.
 Alpha  occ. eigenvalues --  -19.22787 -19.17270 -19.12642 -14.37447 -14.32466
 Alpha  occ. eigenvalues --  -10.34891 -10.29872 -10.27384 -10.23310 -10.21325
 Alpha  occ. eigenvalues --  -10.20435 -10.19765 -10.19177  -1.13554  -1.04608
 Alpha  occ. eigenvalues --   -1.04494  -0.93651  -0.92692  -0.79427  -0.76784
 Alpha  occ. eigenvalues --   -0.74642  -0.70203  -0.64684  -0.61801  -0.58963
 Alpha  occ. eigenvalues --   -0.57338  -0.54909  -0.52164  -0.51729  -0.51003
 Alpha  occ. eigenvalues --   -0.49626  -0.46106  -0.45335  -0.43658  -0.43429
 Alpha  occ. eigenvalues --   -0.42369  -0.41164  -0.40800  -0.39352  -0.38855
 Alpha  occ. eigenvalues --   -0.38288  -0.38012  -0.35675  -0.35099  -0.34806
 Alpha  occ. eigenvalues --   -0.33176  -0.31580  -0.26341  -0.26004  -0.22812
 Alpha virt. eigenvalues --   -0.03359  -0.01196  -0.00526   0.00547   0.00838
 Alpha virt. eigenvalues --    0.02238   0.02489   0.03488   0.03955   0.04739
 Alpha virt. eigenvalues --    0.05101   0.05861   0.06512   0.07071   0.07434

 Mulliken charges:
               1
     1  C   -0.395526
     2  N   -0.360799
     3  C   -0.420438
     4  C    0.594995
     5  O   -0.466010
     6  C   -0.240035
     7  C   -0.433430
     8  H    0.388541
     9  N   -0.477375
    10  C   -0.291091
    11  C    0.289101
    12  O   -0.372351
    13  C   -0.579371
    14  O   -0.522244
    15  H    0.513419
    16  H    0.432756
    17  H    0.192150
    18  H    0.175027
    19  H    0.190194
    20  H    0.220728
    21  H    0.223883
    22  H    0.202138
    23  H    0.211999
    24  H    0.231026
    25  H    0.233962
    26  H    0.234833
    27  H    0.223917
 Sum of Mulliken charges =  -0.00000

 Dipole moment (field-independent basis, Debye):
    X=              1.8277    Y=             -1.4321    Z=              1.6720  Tot=              2.8613
 Quadrupole moment (field-independent basis, Debye-Ang):
   XX=            -74.1369   YY=            -88.6264   ZZ=            -75.8490
   XY=             10.6159   XZ=             -6.3461   YZ=              8.3037

  Exact polarizability: 126.949  -2.658 116.732   3.720  -4.635 104.258
 Approx polarizability: 161.268 -12.220 170.304   9.573 -15.722 153.350

                      1                      2                      3
                      A                      A                      A
 Frequencies --     42.0343                45.3757                56.7199
 Red. masses --      3.5394                 4.2919                 9.3980
 Frc consts  --      0.0037                 0.0052                 0.0178
 IR Inten    --      0.6062                 2.1690                 1.9639

                      4                      5                      6
                      A                      A                      A
 Frequencies --     75.2202                96.2500               124.7240
 Red. masses --      5.6407                 2.2815                 3.3343
 Frc consts  --      0.0188                 0.0125                 0.0306
 IR Inten    --      0.1352                 0.8388                 0.8187

                      7                      8                      9
                      A                      A                      A
 Frequencies --    177.1288               204.6901               234.6172
 Red. masses --      2.6639                 1.6362                 1.9005
 Frc consts  --      0.0492                 0.0404                 0.0616
 IR Inten    --      1.4149                 1.2131                 0.5197

                     10                     11                     12
                      A                      A                      A
 Frequencies --    261.6407               328.2708               346.9413
 Red. masses --      2.9632                 5.2965                 3.1147
 Frc consts  --      0.1195                 0.3363                 0.2209
 IR Inten    --      1.7742                 8.9254                 2.0946

                     13                     14                     15
                      A                      A                      A
 Frequencies --    349.0852               458.8467               496.0331
 Red. masses --      4.2044                 6.0118                 3.0763
 Frc consts  --      0.3019                 0.7457                 0.4460
 IR Inten    --      2.6272                 1.7970                36.4478

                     16                     17                     18
                      A                      A                      A
 Frequencies --    524.8738               564.7821               574.2832
 Red. masses --      3.0796                 2.5233                 1.6083
 Frc consts  --      0.4999                 0.4742                 0.3125
 IR Inten    --      7.6122                27.7781                48.1457

                     19                     20                     21
                      A                      A                      A
 Frequencies --    618.8472               630.8148               671.1891
 Red. masses --      2.2131                 1.9711                 1.9730
 Frc consts  --      0.4994                 0.4621                 0.5237
 IR Inten    --     65.5378                24.0581                79.3000

                     22                     23                     24
                      A                      A                      A
 Frequencies --    700.4057               753.4469               769.4729
 Red. masses --      3.5576                 2.3244                 1.6095
 Frc consts  --      1.0283                 0.7774                 0.5615
 IR Inten    --     25.2252                16.5838                38.2522

                     25                     26                     27
                      A                      A                      A
 Frequencies --    811.0390               848.6023               863.0260
 Red. masses --      2.8852                 1.7869                 2.9801
 Frc consts  --      1.1182                 0.7582                 1.3077
 IR Inten    --     27.0335                 9.7000                13.9104

                     28                     29                     30
                      A                      A                      A
 Frequencies --    920.0906               942.9272               959.9956
 Red. masses --      2.9337                 2.1535                 1.9851
 Frc consts  --      1.4633                 1.1281                 1.0779
 IR Inten    --      2.2490                 5.3083                15.7830

                     31                     32                     33
                      A                      A                      A
 Frequencies --    988.5169              1010.5266              1065.0591
 Red. masses --      2.6718                 2.4576                 1.6327
 Frc consts  --      1.5382                 1.4786                 1.0912
 IR Inten    --      5.9034                 9.0571                 6.6582

                     34                     35                     36
                      A                      A                      A
 Frequencies --   1069.7229              1113.3563              1118.5277
 Red. masses --      2.2041                 1.7418                 2.0759
 Frc consts  --      1.4860                 1.2721                 1.5302
 IR Inten    --      6.5983                 0.4267                41.9389

                     37                     38                     39
                      A                      A                      A
 Frequencies --   1151.5791              1167.9019              1204.9742
 Red. masses --      3.3398                 2.2249                 2.5550
 Frc consts  --      2.6095                 1.7880                 2.1858
 IR Inten    --     76.8129               124.5151                46.3840

                     40                     41                     42
                      A                      A                      A
 Frequencies --   1213.6441              1240.2184              1263.8421
 Red. masses --      1.3630                 1.2927                 1.2072
 Frc consts  --      1.1828                 1.1715                 1.1361
 IR Inten    --     10.8939                 2.2719                18.8447

                     43                     44                     45
                      A                      A                      A
 Frequencies --   1287.6826              1304.1347              1317.1906
 Red. masses --      2.1586                 1.2675                 1.4065
 Frc consts  --      2.1088                 1.2701                 1.4378
 IR Inten    --    197.9031                32.1191                13.2786

                     46                     47                     48
                      A                      A                      A
 Frequencies --   1329.6182              1341.3652              1367.1978
 Red. masses --      1.2658                 1.3342                 1.7817
 Frc consts  --      1.3185                 1.4144                 1.9622
 IR Inten    --      3.3138                 5.4146                22.6816

                     49                     50                     51
                      A                      A                      A
 Frequencies --   1377.3324              1392.7801              1433.8752
 Red. masses --      1.7407                 1.3550                 1.5101
 Frc consts  --      1.9456                 1.5487                 1.8293
 IR Inten    --     17.9789                 5.6069                45.7916

                     52                     53                     54
                      A                      A                      A
 Frequencies --   1435.2566              1451.6638              1501.8914
 Red. masses --      1.3585                 1.4645                 1.4191
 Frc consts  --      1.6488                 1.8183                 1.8860
 IR Inten    --     64.5728                 6.0034                28.9533

                     55                     56                     57
                      A                      A                      A
 Frequencies --   1511.5215              1516.6448              1523.4891
 Red. masses --      1.0889                 1.0907                 1.0560
 Frc consts  --      1.4658                 1.4782                 1.4441
 IR Inten    --      1.5316                 0.8344                 4.4480

                     58                     59                     60
                      A                      A                      A
 Frequencies --   1531.7802              1545.8257              1747.6583
 Red. masses --      1.0882                 1.1026                 7.1711
 Frc consts  --      1.5043                 1.5523                12.9047
 IR Inten    --      3.7444                 1.2137               373.6375

                     61                     62                     63
                      A                      A                      A
 Frequencies --   1812.1158              2910.4156              2922.6997
 Red. masses --     10.1474                 1.0791                 1.0744
 Frc consts  --     19.6326                 5.3856                 5.4071
 IR Inten    --    250.7736                68.5672               126.0468

                     64                     65                     66
                      A                      A                      A
 Frequencies --   3036.3877              3071.8532              3079.0312
 Red. masses --      1.0830                 1.0608                 1.0361
 Frc consts  --      5.8832                 5.8978                 5.7874
 IR Inten    --      9.9656                27.0334                14.3859

                     67                     68                     69
                      A                      A                      A
 Frequencies --   3084.1722              3089.1834              3111.4757
 Red. masses --      1.0649                 1.0854                 1.1041
 Frc consts  --      5.9681                 6.1027                 6.2980
 IR Inten    --     36.2300                41.4776                14.3232

                     70                     71                     72
                      A                      A                      A
 Frequencies --   3137.1332              3149.7048              3161.2443
 Red. masses --      1.1057                 1.1033                 1.1016
 Frc consts  --      6.4114                 6.4487                 6.4862
 IR Inten    --     31.7258                11.6258                16.7812

                     73                     74                     75
                      A                      A                      A
 Frequencies --   3552.3808              3586.7257              3683.9515
 Red. masses --      1.0758                 1.0762                 1.0645
 Frc consts  --      7.9991                 8.1569                 8.5116
 IR Inten    --      3.5340                27.2899                67.8595

 - Thermochemistry -
 -------------------
 Temperature   298.150 Kelvin.  Pressure   1.00000 Atm.
 Atom     1 has atomic number  6 and mass  12.00000

 Molecular mass:   186.10044 amu.
 Principal axes and moments of inertia in atomic units:
                           1         2         3
     Eigenvalues --  1587.412583220.468613791.98112
           X            0.99919   0.03970   0.00666
           Y           -0.03986   0.99888   0.02540
           Z           -0.00565  -0.02565   0.99966
 This molecule is an asymmetric top.
 Rotational symmetry number  1.
 Warning -- assumption of classical behavior for rotation
           may cause significant error
 Rotational temperatures (Kelvin)      0.05456     0.02689     0.02284
 Rotational constants (GHZ):           1.13691     0.56040     0.47594
 Zero-point vibrational energy     600313.8 (Joules/Mol)
                                  143.47844 (Kcal/Mol)
 Warning -- explicit consideration of  19 degrees of freedom as
           vibrations may cause significant error
 Vibrational temperatures:     60.48    65.29    81.61   108.22   138.48
          (Kelvin)            179.45   254.85   294.50   337.56   376.44
                              472.31   499.17   502.26   660.18   713.68
                              755.18   812.59   826.26   890.38   907.60
                              965.69  1007.73  1084.04  1107.10  1166.90
                             1220.95  1241.70  1323.80  1356.66  1381.22
                             1422.25  1453.92  1532.38  1539.09  1601.87
                             1609.31  1656.86  1680.35  1733.69  1746.16
                             1784.40  1818.38  1852.69  1876.36  1895.14
                             1913.02  1929.92  1967.09  1981.67  2003.90
                             2063.02  2065.01  2088.62  2160.88  2174.74
                             2182.11  2191.96  2203.89  2224.10  2514.49
                             2607.23  4187.43  4205.11  4368.68  4419.71
                             4430.03  4437.43  4444.64  4476.71  4513.63
                             4531.72  4548.32  5111.08  5160.49  5300.38

 Zero-point correction=                           0.228647 (Hartree/Particle)
 Thermal correction to Energy=                    0.241953
 Thermal correction to Enthalpy=                  0.242898
 Thermal correction to Gibbs Free Energy=         0.187472
 Sum of electronic and zero-point Energies=           -648.257138
 Sum of electronic and thermal Energies=              -648.243833
 Sum of electronic and thermal Enthalpies=            -648.242888
 Sum of electronic and thermal Free Energies=         -648.298314

                     E (Thermal)             CV                S
                      KCal/Mol        Cal/Mol-Kelvin    Cal/Mol-Kelvin
 Total                  151.828             48.861            116.654
 Electronic               0.000              0.000              0.000
 Translational            0.889              2.981             41.569
 Rotational               0.889              2.981             31.339
 Vibrational            150.051             42.899             43.745
 Vibration     1          0.595              1.980              5.161
 Vibration     2          0.595              1.979              5.009
 Vibration     3          0.596              1.975              4.568
 Vibration     4          0.599              1.966              4.012
 Vibration     5          0.603              1.952              3.529
 Vibration     6          0.610              1.928              3.026
 Vibration     7          0.628              1.871              2.358
 Vibration     8          0.640              1.833              2.091
 Vibration     9          0.654              1.788              1.843
 Vibration    10          0.669              1.743              1.651
 Vibration    11          0.711              1.619              1.269
 Vibration    12          0.725              1.581              1.180
 Vibration    13          0.726              1.577              1.170
 Vibration    14          0.817              1.341              0.769
 Vibration    15          0.852              1.259              0.668
 Vibration    16          0.880              1.195              0.599
 Vibration    17          0.921              1.107              0.514
 Vibration    18          0.931              1.087              0.496
 Vibration    19          0.979              0.992              0.418

 Normal termination of Gaussian 09 at Wed Jul  7 12:14:04 2021.
